 vasp.6.4.2 20Jul23 (build Apr 30 2024 10:50:56) complex                        
  
 executed on             LinuxIFC date 2024.11.05  11:05:46
 running  128 mpi-ranks, on    1 nodes
 distrk:  each k-point on  128 cores,    1 groups
 distr:  one band on NCORE=   1 cores,  128 groups


--------------------------------------------------------------------------------------------------------


 INCAR:
   SYSTEM = nmr_test
   ISTART = 0
   NWRITE = 2
   PREC = Accurate
   ENCUT = 600
   ISPIN = 1
   LREAL = A
   ISIF = 2
   ISYM = 0
   LASPH = .TRUE.
   LCHARG = .FALSE.
   LWAVE = .FALSE.
   EDIFF = 1.0E-8
   IBRION = -1
   NSW = 0
   NELM = 200
   NELMIN = 8
   ISMEAR = 0
   SIGMA = 0.1
   ALGO = N
   LCHIMAG = .TRUE.
   DQ = 0.001
   ICHIBARE = 1
   LNMR_SYM_RED = .TRUE.
   NSLPLINE = .FALSE.
   LEFG = .TRUE.
   QUAD_EFG = 146.6 -25.58 1

 POTCAR:    PAW_PBE Al 04Jan2001                  
 POTCAR:    PAW_PBE O 08Apr2002                   
 POTCAR:    PAW_PBE P 06Sep2000                   
 -----------------------------------------------------------------------------
|                                                                             |
|           W    W    AA    RRRRR   N    N  II  N    N   GGGG   !!!           |
|           W    W   A  A   R    R  NN   N  II  NN   N  G    G  !!!           |
|           W    W  A    A  R    R  N N  N  II  N N  N  G       !!!           |
|           W WW W  AAAAAA  RRRRR   N  N N  II  N  N N  G  GGG   !            |
|           WW  WW  A    A  R   R   N   NN  II  N   NN  G    G                |
|           W    W  A    A  R    R  N    N  II  N    N   GGGG   !!!           |
|                                                                             |
|     For optimal performance we recommend to set                             |
|       NCORE = 2 up to number-of-cores-per-socket                            |
|     NCORE specifies how many cores store one orbital (NPAR=cpu/NCORE).      |
|     This setting can greatly improve the performance of VASP for DFT.       |
|     The default, NCORE=1 might be grossly inefficient on modern             |
|     multi-core architectures or massively parallel machines. Do your        |
|     own testing! More info at https://www.vasp.at/wiki/index.php/NCORE      |
|     Unfortunately you need to use the default for GW and RPA                |
|     calculations (for HF NCORE is supported but not extensively tested      |
|     yet).                                                                   |
|                                                                             |
 -----------------------------------------------------------------------------

 POTCAR:    PAW_PBE Al 04Jan2001                  
   VRHFIN =Al: s2p1                                                                                 
   LEXCH  = PE                                                                                      
   EATOM  =    53.5387 eV,    3.9350 Ry                                                             
                                                                                                    
   TITEL  = PAW_PBE Al 04Jan2001                                                                    
   LULTRA =        F    use ultrasoft PP ?                                                          
   IUNSCR =        1    unscreen: 0-lin 1-nonlin 2-no                                               
   RPACOR =    1.500    partial core radius                                                         
   POMASS =   26.981; ZVAL   =    3.000    mass and valenz                                          
   RCORE  =    1.900    outmost cutoff radius                                                       
   RWIGS  =    2.650; RWIGS  =    1.402    wigner-seitz radius (au A)                               
   ENMAX  =  240.300; ENMIN  =  180.225 eV                                                          
   ICORE  =        2    local potential                                                             
   LCOR   =        T    correct aug charges                                                         
   LPAW   =        T    paw PP                                                                      
   EAUG   =  291.052                                                                                
   DEXC   =    0.000                                                                                
   RMAX   =    1.939    core radius for proj-oper                                                   
   RAUG   =    1.300    factor for augmentation sphere                                              
   RDEP   =    1.966    radius for radial grids                                                     
   RDEPT  =    1.856    core radius for aug-charge                                                  
                                                                                                    
   Atomic configuration                                                                             
    6 entries                                                                                       
     n  l   j            E        occ.                                                              
     1  0  0.50     -1511.1048   2.0000                                                             
     2  0  0.50      -108.1629   2.0000                                                             
     2  1  1.50       -69.6402   6.0000                                                             
     3  0  0.50        -7.7528   2.0000                                                             
     3  1  1.50        -2.7121   1.0000                                                             
     3  2  2.50        -2.7212   0.0000                                                             
   Description                                                                                      
     l       E           TYP  RCUT    TYP  RCUT                                                     
     0     -7.7528455     23  1.900                                                                 
     0     -3.3096929     23  1.900                                                                 
     1     -2.7120682     23  1.900                                                                 
     1     13.6058260     23  1.900                                                                 
     2     -2.7211652      7  1.900                                                                 
  local pseudopotential read in
  partial core-charges read in
  partial kinetic energy density read in
  atomic valenz-charges read in
  non local Contribution for L=           0  read in
    real space projection operators read in
  non local Contribution for L=           0  read in
    real space projection operators read in
  non local Contribution for L=           1  read in
    real space projection operators read in
  non local Contribution for L=           1  read in
    real space projection operators read in
    PAW grid and wavefunctions read in
 
   number of l-projection  operators is LMAX  =           4
   number of lm-projection operators is LMMAX =           8
 
 POTCAR:    PAW_PBE O 08Apr2002                   
   VRHFIN =O: s2p4                                                                                  
   LEXCH  = PE                                                                                      
   EATOM  =   432.3788 eV,   31.7789 Ry                                                             
                                                                                                    
   TITEL  = PAW_PBE O 08Apr2002                                                                     
   LULTRA =        F    use ultrasoft PP ?                                                          
   IUNSCR =        1    unscreen: 0-lin 1-nonlin 2-no                                               
   RPACOR =    1.200    partial core radius                                                         
   POMASS =   16.000; ZVAL   =    6.000    mass and valenz                                          
   RCORE  =    1.520    outmost cutoff radius                                                       
   RWIGS  =    1.550; RWIGS  =    0.820    wigner-seitz radius (au A)                               
   ENMAX  =  400.000; ENMIN  =  300.000 eV                                                          
   ICORE  =        2    local potential                                                             
   LCOR   =        T    correct aug charges                                                         
   LPAW   =        T    paw PP                                                                      
   EAUG   =  605.392                                                                                
   DEXC   =    0.000                                                                                
   RMAX   =    1.553    core radius for proj-oper                                                   
   RAUG   =    1.300    factor for augmentation sphere                                              
   RDEP   =    1.550    radius for radial grids                                                     
   RDEPT  =    1.329    core radius for aug-charge                                                  
                                                                                                    
   Atomic configuration                                                                             
    4 entries                                                                                       
     n  l   j            E        occ.                                                              
     1  0  0.50      -514.6923   2.0000                                                             
     2  0  0.50       -23.9615   2.0000                                                             
     2  1  0.50        -9.0305   4.0000                                                             
     3  2  1.50        -9.5241   0.0000                                                             
   Description                                                                                      
     l       E           TYP  RCUT    TYP  RCUT                                                     
     0    -23.9615318     23  1.200                                                                 
     0     -9.5240782     23  1.200                                                                 
     1     -9.0304911     23  1.520                                                                 
     1      8.1634956     23  1.520                                                                 
     2     -9.5240782      7  1.500                                                                 
  local pseudopotential read in
  partial core-charges read in
  partial kinetic energy density read in
  kinetic energy density of atom read in
  atomic valenz-charges read in
  non local Contribution for L=           0  read in
    real space projection operators read in
  non local Contribution for L=           0  read in
    real space projection operators read in
  non local Contribution for L=           1  read in
    real space projection operators read in
  non local Contribution for L=           1  read in
    real space projection operators read in
    PAW grid and wavefunctions read in
 
   number of l-projection  operators is LMAX  =           4
   number of lm-projection operators is LMMAX =           8
 
 POTCAR:    PAW_PBE P 06Sep2000                   
   VRHFIN =P : s2p3                                                                                 
   LEXCH  = PE                                                                                      
   EATOM  =   176.0430 eV,   12.9388 Ry                                                             
                                                                                                    
   TITEL  = PAW_PBE P 06Sep2000                                                                     
   LULTRA =        F    use ultrasoft PP ?                                                          
   IUNSCR =        1    unscreen: 0-lin 1-nonlin 2-no                                               
   RPACOR =    1.500    partial core radius                                                         
   POMASS =   30.974; ZVAL   =    5.000    mass and valenz                                          
   RCORE  =    1.900    outmost cutoff radius                                                       
   RWIGS  =    2.330; RWIGS  =    1.233    wigner-seitz radius (au A)                               
   ENMAX  =  255.040; ENMIN  =  191.280 eV                                                          
   ICORE  =        2    local potential                                                             
   LCOR   =        T    correct aug charges                                                         
   LPAW   =        T    paw PP                                                                      
   EAUG   =  342.924                                                                                
   DEXC   =    0.000                                                                                
   RMAX   =    1.935    core radius for proj-oper                                                   
   RAUG   =    1.300    factor for augmentation sphere                                              
   RDEP   =    1.931    radius for radial grids                                                     
   RDEPT  =    1.794    core radius for aug-charge                                                  
                                                                                                    
   Atomic configuration                                                                             
    6 entries                                                                                       
     n  l   j            E        occ.                                                              
     1  0  0.50     -2084.0982   2.0000                                                             
     2  0  0.50      -173.9859   2.0000                                                             
     2  1  1.50      -124.4865   6.0000                                                             
     3  0  0.50       -13.9692   2.0000                                                             
     3  1  0.50        -5.5067   3.0000                                                             
     3  2  1.50        -5.4423   0.0000                                                             
   Description                                                                                      
     l       E           TYP  RCUT    TYP  RCUT                                                     
     0    -13.9691527     23  1.900                                                                 
     0    -11.7794650     23  1.900                                                                 
     1     -5.5066937     23  1.900                                                                 
     1     -0.2556953     23  1.900                                                                 
     2     -5.4423304     23  1.900                                                                 
  local pseudopotential read in
  partial core-charges read in
  partial kinetic energy density read in
  atomic valenz-charges read in
  non local Contribution for L=           0  read in
    real space projection operators read in
  non local Contribution for L=           0  read in
    real space projection operators read in
  non local Contribution for L=           1  read in
    real space projection operators read in
  non local Contribution for L=           1  read in
    real space projection operators read in
    PAW grid and wavefunctions read in
 
   number of l-projection  operators is LMAX  =           4
   number of lm-projection operators is LMMAX =           8
 
 Optimization of the real space projectors (new method)

 maximal supplied QI-value         = 19.84
 optimisation between [QCUT,QGAM] = [ 12.50, 25.00] = [ 43.76,175.03] Ry 
 Optimized for a Real-space Cutoff    1.16 Angstroem

   l    n(q)    QCUT    max X(q) W(low)/X(q) W(high)/X(q)  e(spline) 
   0      9    12.501   176.870    0.65E-04    0.72E-04    0.61E-07
   0      9    12.501   105.762    0.64E-04    0.70E-04    0.60E-07
   1      8    12.501    55.370    0.17E-03    0.19E-03    0.72E-07
   1      8    12.501    20.208    0.16E-03    0.18E-03    0.68E-07
 Optimization of the real space projectors (new method)

 maximal supplied QI-value         = 24.76
 optimisation between [QCUT,QGAM] = [ 12.38, 25.00] = [ 42.90,175.06] Ry 
 Optimized for a Real-space Cutoff    1.16 Angstroem

   l    n(q)    QCUT    max X(q) W(low)/X(q) W(high)/X(q)  e(spline) 
   0      9    12.378    20.381    0.16E-03    0.67E-05    0.31E-06
   0      9    12.378    15.268    0.17E-03    0.81E-05    0.33E-06
   1      8    12.378     5.964    0.20E-03    0.16E-03    0.30E-06
   1      8    12.378     5.382    0.18E-03    0.14E-03    0.26E-06
 Optimization of the real space projectors (new method)

 maximal supplied QI-value         = 19.84
 optimisation between [QCUT,QGAM] = [ 12.50, 25.00] = [ 43.76,175.03] Ry 
 Optimized for a Real-space Cutoff    1.20 Angstroem

   l    n(q)    QCUT    max X(q) W(low)/X(q) W(high)/X(q)  e(spline) 
   0      9    12.501   160.924    0.48E-04    0.70E-04    0.81E-07
   0      9    12.501   130.086    0.47E-04    0.70E-04    0.80E-07
   1      8    12.501    74.434    0.11E-03    0.12E-03    0.85E-07
   1      8    12.501    49.120    0.11E-03    0.12E-03    0.83E-07
  PAW_PBE Al 04Jan2001                  :
 energy of atom  1       EATOM=  -53.5387
 kinetic energy error for atom=    0.0002 (will be added to EATOM!!)
  PAW_PBE O 08Apr2002                   :
 energy of atom  2       EATOM= -432.3788
 kinetic energy error for atom=    0.0168 (will be added to EATOM!!)
  PAW_PBE P 06Sep2000                   :
 energy of atom  3       EATOM= -176.0430
 kinetic energy error for atom=    0.0006 (will be added to EATOM!!)
 
 
 POSCAR: Al  O  P
  positions in cartesian coordinates
  No initial velocities read in
 exchange correlation table for  LEXCH =        8
   RHO(1)=    0.500       N(1)  =     2000
   RHO(2)=  100.500       N(2)  =     4000
 


--------------------------------------------------------------------------------------------------------


 ion  position               nearest neighbor table
   1  0.926  0.528  0.799-  27 1.75  34 1.75  17 1.75  10 1.75  42 3.01  41 3.02  45 3.16
   2  0.074  0.472  0.201-  26 1.75  31 1.75  23 1.75  39 1.75  48 3.01  47 3.02  46 3.16
   3  0.190  0.950  0.353-  21 1.73  16 1.74  33 1.75  30 1.76  44 3.03  41 3.13
   4  0.810  0.050  0.647-  20 1.73  18 1.74  29 1.75  36 1.76  43 3.03  47 3.13
   5  0.569  0.804  0.097-  24 1.74  11 1.75  40 1.75  38 1.75  46 3.09  48 3.09  44 3.11
   6  0.431  0.196  0.903-  25 1.74  14 1.75  32 1.75  28 1.75  45 3.09  42 3.09  43 3.11
   7  0.728  0.263  0.155-  37 1.74  13 1.75  19 1.75  15 1.75  44 3.04  46 3.05
   8  0.272  0.737  0.845-  35 1.74  12 1.75   9 1.75  22 1.75  43 3.04  45 3.05
   9  0.226  0.757  0.016-  48 1.54   8 1.75
  10  0.838  0.594  0.941-  46 1.54   1 1.75
  11  0.566  0.947  0.175-  44 1.54   5 1.75
  12  0.431  0.821  0.761-  43 1.54   8 1.75
  13  0.569  0.179  0.239-  44 1.54   7 1.75
  14  0.434  0.053  0.825-  43 1.54   6 1.75
  15  0.705  0.441  0.157-  46 1.54   7 1.75
  16  0.153  0.844  0.516-  41 1.53   3 1.74
  17  0.975  0.672  0.664-  41 1.54   1 1.75
  18  0.847  0.156  0.484-  47 1.53   4 1.74
  19  0.774  0.243  0.984-  42 1.54   7 1.75
  20  0.941  0.927  0.666-  41 1.53   4 1.73
  21  0.059  0.073  0.334-  47 1.53   3 1.73
  22  0.295  0.559  0.843-  45 1.54   8 1.75
  23  0.025  0.328  0.336-  47 1.54   2 1.75
  24  0.710  0.700  0.134-  46 1.53   5 1.74
  25  0.290  0.300  0.866-  45 1.53   6 1.74
  26  0.926  0.565  0.162-  46 1.53   2 1.75
  27  0.074  0.435  0.838-  45 1.53   1 1.75
  28  0.588  0.292  0.840-  42 1.54   6 1.75
  29  0.805  0.153  0.770-  42 1.53   4 1.75
  30  0.354  0.030  0.330-  44 1.54   3 1.76
  31  0.181  0.588  0.244-  48 1.54   2 1.75
  32  0.411  0.139  0.081-  44 1.54   6 1.75
  33  0.195  0.847  0.230-  48 1.53   3 1.75
  34  0.819  0.412  0.756-  42 1.54   1 1.75
  35  0.130  0.799  0.771-  41 1.54   8 1.74
  36  0.646  0.970  0.670-  43 1.54   4 1.76
  37  0.870  0.201  0.229-  47 1.54   7 1.74
  38  0.412  0.708  0.160-  48 1.54   5 1.75
  39  0.162  0.406  0.059-  45 1.54   2 1.75
  40  0.589  0.861  0.919-  43 1.54   5 1.75
  41  0.049  0.811  0.654-  20 1.53  16 1.53  35 1.54  17 1.54   1 3.02   3 3.13
  42  0.746  0.275  0.837-  29 1.53  34 1.54  28 1.54  19 1.54   1 3.01   6 3.09
  43  0.525  0.926  0.794-  36 1.54  12 1.54  14 1.54  40 1.54   4 3.03   8 3.04   6 3.11
  44  0.475  0.074  0.206-  30 1.54  13 1.54  11 1.54  32 1.54   3 3.03   7 3.04   5 3.11
  45  0.205  0.426  0.902-  25 1.53  27 1.53  39 1.54  22 1.54   8 3.05   6 3.09   1 3.16
  46  0.795  0.574  0.098-  24 1.53  26 1.53  10 1.54  15 1.54   7 3.05   5 3.09   2 3.16
  47  0.951  0.189  0.346-  21 1.53  18 1.53  37 1.54  23 1.54   2 3.02   4 3.13
  48  0.254  0.725  0.163-  33 1.53  31 1.54  38 1.54   9 1.54   2 3.01   5 3.09
 

IMPORTANT INFORMATION: All symmetrisations will be switched off!
NOSYMM: (Re-)initialisation of all symmetry stuff for point group C_1.


----------------------------------------------------------------------------------------

                                     Primitive cell                                     

  volume of cell :     929.2609

  direct lattice vectors                    reciprocal lattice vectors
     9.726334732  0.000000000  0.000000000     0.102813653 -0.003939763 -0.021212625
     0.375469836  9.798413664  0.000000000     0.000000000  0.102057336 -0.021007715
     2.088671340  2.007092026  9.750630320     0.000000000  0.000000000  0.102557472

  length of vectors
     9.726334732  9.805604924 10.171811933     0.105053055  0.104197044  0.102557472

  position of ions in fractional coordinates (direct lattice)
     0.926335670  0.528456300  0.798503960
     0.073664320  0.471543680  0.201495880
     0.189933840  0.949677290  0.352660240
     0.810066180  0.050322740  0.647339890
     0.568967670  0.803784420  0.096987190
     0.431032340  0.196215560  0.903012750
     0.727887340  0.263396380  0.154940260
     0.272112660  0.736603640  0.845059780
     0.226281790  0.757288040  0.015698270
     0.838357280  0.593780510  0.941018460
     0.565585820  0.947125170  0.175256500
     0.431140130  0.820829700  0.761262400
     0.568859780  0.179170390  0.238737340
     0.434414330  0.052874950  0.824743200
     0.704816460  0.441343860  0.157046390
     0.153331340  0.843852530  0.515869980
     0.974774120  0.671744690  0.663890880
     0.846668780  0.156147660  0.484130250
     0.773718650  0.242712180  0.984301730
     0.940930290  0.926762030  0.665639690
     0.059069710  0.073238070  0.334360410
     0.295183450  0.558656150  0.842953770
     0.025225850  0.328255360  0.336109080
     0.710077610  0.700154640  0.134440250
     0.289922500  0.299845430  0.865559580
     0.926034360  0.565442480  0.161789470
     0.073965700  0.434557540  0.838210250
     0.587741550  0.291726960  0.839906420
     0.804512140  0.152780060  0.769908700
     0.354477990  0.029657240  0.329857460
     0.180636540  0.588480460  0.244207240
     0.410615700  0.139253660  0.080772230
     0.195487740  0.847219780  0.230091580
     0.819363430  0.411519510  0.755792600
     0.129894130  0.799245870  0.770583750
     0.645522130  0.970342620  0.670142470
     0.870105670  0.200753970  0.229416570
     0.412258490  0.708273040  0.160093970
     0.161642510  0.406219270  0.058981450
     0.589384030  0.860746150  0.919227730
     0.049332880  0.810743290  0.653648150
     0.746245700  0.274654660  0.837292570
     0.525204570  0.926304410  0.794251120
     0.474795380  0.073695560  0.205748720
     0.204552980  0.425975050  0.901949700
     0.795446980  0.574024910  0.098050200
     0.950667140  0.189256760  0.346351960
     0.253754370  0.725345370  0.162707560

  ion indices of the primitive-cell ions
   primitive index   ion index
                 1           1
                 2           2
                 3           3
                 4           4
                 5           5
                 6           6
                 7           7
                 8           8
                 9           9
                10          10
                11          11
                12          12
                13          13
                14          14
                15          15
                16          16
                17          17
                18          18
                19          19
                20          20
                21          21
                22          22
                23          23
                24          24
                25          25
                26          26
                27          27
                28          28
                29          29
                30          30
                31          31
                32          32
                33          33
                34          34
                35          35
                36          36
                37          37
                38          38
                39          39
                40          40
                41          41
                42          42
                43          43
                44          44
                45          45
                46          46
                47          47
                48          48

----------------------------------------------------------------------------------------

 
 
 KPOINTS: KPOINT grid; gamma centered             

Automatic generation of k-mesh.
 Grid dimensions read from file:
 generate k-points for:    1    1    1

 Generating k-lattice:

  Cartesian coordinates                     Fractional coordinates (reciprocal lattice)
     0.102813653 -0.003939763 -0.021212625     1.000000000 -0.000000000  0.000000000
     0.000000000  0.102057336 -0.021007715     0.000000000  1.000000000 -0.000000000
     0.000000000  0.000000000  0.102557472     0.000000000  0.000000000  1.000000000

  Length of vectors
     0.105053055  0.104197044  0.102557472

  Shift w.r.t. Gamma in fractional coordinates (k-lattice)
     0.000000000  0.000000000  0.000000000

 
 Subroutine IBZKPT returns following result:
 ===========================================
 
 Found      1 irreducible k-points:
 
 Following reciprocal coordinates:
            Coordinates               Weight
  0.000000  0.000000  0.000000      1.000000
 
 Following cartesian coordinates:
            Coordinates               Weight
  0.000000  0.000000  0.000000      1.000000
 
 
 Subroutine IBZKPT_HF returns following result:
 ==============================================
 
 Found      1 k-points in 1st BZ
 the following      1 k-points will be used (e.g. in the exchange kernel)
 Following reciprocal coordinates:   # in IRBZ
  0.000000  0.000000  0.000000    1.00000000   1 t-inv F


--------------------------------------------------------------------------------------------------------




 Dimension of arrays:
   k-points           NKPTS =      1   k-points in BZ     NKDIM =      1   number of bands    NBANDS=    256
   number of dos      NEDOS =    301   number of ions     NIONS =     48
   non local maximal  LDIM  =      4   non local SUM 2l+1 LMDIM =      8
   total plane-waves  NPLWV = 537600
   max r-space proj   IRMAX =   4194   max aug-charges    IRDMAX=  22713
   dimension x,y,z NGX =    80 NGY =   80 NGZ =   84
   dimension x,y,z NGXF=   160 NGYF=  160 NGZF=  168
   support grid    NGXF=   160 NGYF=  160 NGZF=  168
   ions per type =               8  32   8
   NGX,Y,Z   is equivalent  to a cutoff of  13.67, 13.56, 13.73 a.u.
   NGXF,Y,Z  is equivalent  to a cutoff of  27.35, 27.13, 27.46 a.u.

 SYSTEM =  nmr_test                                
 POSCAR =  Al  O  P                                

 Startparameter for this run:
   NWRITE =      2    write-flag & timer
   PREC   = accura    normal or accurate (medium, high low for compatibility)
   ISTART =      0    job   : 0-new  1-cont  2-samecut
   ICHARG =      2    charge: 1-file 2-atom 10-const
   ISPIN  =      1    spin polarized calculation?
   LNONCOLLINEAR =      F non collinear calculations
   LSORBIT =      F    spin-orbit coupling
   INIWAV =      1    electr: 0-lowe 1-rand  2-diag
   LASPH  =      T    aspherical Exc in radial PAW
 Electronic Relaxation 1
   ENCUT  =  600.0 eV  44.10 Ry    6.64 a.u.  19.43 19.58 20.32*2*pi/ulx,y,z
   ENINI  =  600.0     initial cutoff
   ENAUG  =  605.4 eV  augmentation charge cutoff
   NELM   =    200;   NELMIN=  8; NELMDL= -5     # of ELM steps 
   EDIFF  = 0.1E-07   stopping-criterion for ELM
   LREAL  =      T    real-space projection
   NLSPLINE    = F    spline interpolate recip. space projectors
   LCOMPAT=      F    compatible to vasp.4.4
   GGA_COMPAT  = T    GGA compatible to vasp.4.4-vasp.4.6
   LMAXPAW     = -100 max onsite density
   LMAXMIX     =    2 max onsite mixed and CHGCAR
   VOSKOWN=      0    Vosko Wilk Nusair interpolation
   ROPT   =   -0.00025  -0.00025  -0.00025
 Ionic relaxation
   EDIFFG = 0.1E-06   stopping-criterion for IOM
   NSW    =      0    number of steps for IOM
   NBLOCK =      1;   KBLOCK =      1    inner block; outer block 
   IBRION =     -1    ionic relax: 0-MD 1-quasi-New 2-CG
   NFREE  =      0    steps in history (QN), initial steepest desc. (CG)
   ISIF   =      2    stress and relaxation
   IWAVPR =     10    prediction:  0-non 1-charg 2-wave 3-comb
   ISYM   =      0    0-nonsym 1-usesym 2-fastsym
   LCORR  =      T    Harris-Foulkes like correction to forces

   POTIM  = 0.5000    time-step for ionic-motion
   TEIN   =    0.0    initial temperature
   TEBEG  =    0.0;   TEEND  =   0.0 temperature during run
   SMASS  =  -3.00    Nose mass-parameter (am)
   estimated Nose-frequenzy (Omega)   =  0.10E-29 period in steps = 0.13E+47 mass=  -0.216E-26a.u.
   SCALEE = 1.0000    scale energy and forces
   NPACO  =    256;   APACO  = 10.0  distance and # of slots for P.C.
   PSTRESS=    0.0 pullay stress

  Mass of Ions in am
   POMASS =  26.98 16.00 30.97
  Ionic Valenz
   ZVAL   =   3.00  6.00  5.00
  Atomic Wigner-Seitz radii
   RWIGS  =  -1.00 -1.00 -1.00
  virtual crystal weights 
   VCA    =   1.00  1.00  1.00
   NELECT =     256.0000    total number of electrons
   NUPDOWN=      -1.0000    fix difference up-down

 DOS related values:
   EMIN   =  10.00;   EMAX   =-10.00  energy-range for DOS
   EFERMI =   0.00;   METHOD = LEGACY      
   ISMEAR =     0;   SIGMA  =   0.10  broadening in eV -4-tet -1-fermi 0-gaus

 Electronic relaxation 2 (details)
   IALGO  =     38    algorithm
   LDIAG  =      T    sub-space diagonalisation (order eigenvalues)
   LSUBROT=      F    optimize rotation matrix (better conditioning)
   TURBO    =      0    0=normal 1=particle mesh
   IRESTART =      0    0=no restart 2=restart with 2 vectors
   NREBOOT  =      0    no. of reboots
   NMIN     =      0    reboot dimension
   EREF     =   0.00    reference energy to select bands
   IMIX   =      4    mixing-type and parameters
     AMIX     =   0.40;   BMIX     =  1.00
     AMIX_MAG =   1.60;   BMIX_MAG =  1.00
     AMIN     =   0.10
     WC   =   100.;   INIMIX=   1;  MIXPRE=   1;  MAXMIX= -45

 Intra band minimization:
   WEIMIN = 0.0000     energy-eigenvalue tresh-hold
   EBREAK =  0.98E-11  absolut break condition
   DEPER  =   0.30     relativ break condition  

   TIME   =   0.40     timestep for ELM

  volume/ion in A,a.u.               =      19.36       130.65
  Fermi-wavevector in a.u.,A,eV,Ry     =   1.065227  2.012988 15.438654  1.134709
  Thomas-Fermi vector in A             =   2.200772
 
 Write flags
   LWAVE        =      F    write WAVECAR
   LDOWNSAMPLE  =      F    k-point downsampling of WAVECAR
   LCHARG       =      F    write CHGCAR
   LVTOT        =      F    write LOCPOT, total local potential
   LVHAR        =      F    write LOCPOT, Hartree potential only
   LELF         =      F    write electronic localiz. function (ELF)
   LORBIT       =      0    0 simple, 1 ext, 2 COOP (PROOUT), +10 PAW based schemes


 Dipole corrections
   LMONO  =      F    monopole corrections only (constant potential shift)
   LDIPOL =      F    correct potential (dipole corrections)
   IDIPOL =      0    1-x, 2-y, 3-z, 4-all directions 
   EPSILON=  1.0000000 bulk dielectric constant

 Exchange correlation treatment:
   GGA     =    --    GGA type
   LEXCH   =     8    internal setting for exchange type
   LIBXC   =     F    Libxc                    
   VOSKOWN =     0    Vosko Wilk Nusair interpolation
   LHFCALC =     F    Hartree Fock is set to
   LHFONE  =     F    Hartree Fock one center treatment
   AEXX    =    0.0000 exact exchange contribution

 Linear response parameters
   LEPSILON=     F    determine dielectric tensor
   LRPA    =     F    only Hartree local field effects (RPA)
   LNABLA  =     F    use nabla operator in PAW spheres
   LVEL    =     F    velocity operator in full k-point grid
   CSHIFT  =0.1000    complex shift for real part using Kramers Kronig
   OMEGAMAX=  -1.0    maximum frequency
   DEG_THRESHOLD= 0.2000000E-02 threshold for treating states as degnerate
   RTIME   =   -0.100 relaxation time in fs
  (WPLASMAI=    0.000 imaginary part of plasma frequency in eV, 0.658/RTIME)
   DFIELD  = 0.0000000 0.0000000 0.0000000 field for delta impulse in time
 
  Optional k-point grid parameters
   LKPOINTS_OPT  =     F    use optional k-point grid
   KPOINTS_OPT_MODE=     1    mode for optional k-point grid
 
 Orbital magnetization related:
   ORBITALMAG=     F  switch on orbital magnetization
   LMAGBLOCH =     F  use Bloch summation to obtain orbital mag.
   LCHIMAG   =     T  perturbation theory with respect to B field
   DQ        =  0.001000  dq finite difference perturbation B field
   LGAUGE    =     T  gauge transformation for 0 moment terms
   NUCIND    =     F  nuclear independent calculation        
   MAGPOS    =    0.0000    0.0000    0.0000  position of magnetic moment in nuclear independent calculation
   MAGATOM   =     0  atom on which magnetic dipole is placed
   JATOM     =     0  atom on which magnetic dipole is evaluated
   MAGDIPOL  =    0.0000    0.0000    0.0000 magnetic dipole

 Orbital magnetization related:
   ORBITALMAG=     F  switch on orbital magnetization
   LCHIMAG   =     T  perturbation theory with respect to B field
   DQ        =  0.001000  dq finite difference perturbation B field
   LLRAUG    =     F  two centre corrections for induced B field
   LBONE     =     F  B-component reconstruction in AE one-centre
   LVGVCALC  =     T  calculate vGv susceptibility
   LVGVAPPL  =     F  apply vGv susceptibility instead of pGv for G=0

 Random number generation:
   RANDOM_GENERATOR = DEFAULT
   PCG_SEED         = not used


--------------------------------------------------------------------------------------------------------


 Static calculation
 charge density and potential will be updated during run
 non-spin polarized calculation
 Variant of blocked Davidson
 Davidson routine will perform the subspace rotation
 perform sub-space diagonalisation
    after iterative eigenvector-optimisation
 modified Broyden-mixing scheme, WC =      100.0
 initial mixing is a Kerker type mixing with AMIX =  0.4000 and BMIX =      1.0000
 Hartree-type preconditioning will be used
 using additional bands          128
 real space projection scheme for non local part
 use partial core corrections
 calculate Harris-corrections to forces 
   (improved forces if not selfconsistent)
 use gradient corrections 
 use of overlap-Matrix (Vanderbilt PP)
 Gauss-broadening in eV      SIGMA  =   0.10


--------------------------------------------------------------------------------------------------------


  energy-cutoff  :      600.00
  volume of cell :      929.26
      direct lattice vectors                 reciprocal lattice vectors
     9.726334732  0.000000000  0.000000000     0.102813653 -0.003939763 -0.021212625
     0.375469836  9.798413664  0.000000000     0.000000000  0.102057336 -0.021007715
     2.088671340  2.007092026  9.750630320     0.000000000  0.000000000  0.102557472

  length of vectors
     9.726334732  9.805604924 10.171811933     0.105053055  0.104197044  0.102557472


 
 k-points in units of 2pi/SCALE and weight: KPOINT grid; gamma centered             
   0.00000000  0.00000000  0.00000000       1.000
 
 k-points in reciprocal lattice and weights: KPOINT grid; gamma centered             
   0.00000000  0.00000000  0.00000000       1.000
 
 position of ions in fractional coordinates (direct lattice) 
   0.92633567  0.52845630  0.79850396
   0.07366432  0.47154368  0.20149588
   0.18993384  0.94967729  0.35266024
   0.81006618  0.05032274  0.64733989
   0.56896767  0.80378442  0.09698719
   0.43103234  0.19621556  0.90301275
   0.72788734  0.26339638  0.15494026
   0.27211266  0.73660364  0.84505978
   0.22628179  0.75728804  0.01569827
   0.83835728  0.59378051  0.94101846
   0.56558582  0.94712517  0.17525650
   0.43114013  0.82082970  0.76126240
   0.56885978  0.17917039  0.23873734
   0.43441433  0.05287495  0.82474320
   0.70481646  0.44134386  0.15704639
   0.15333134  0.84385253  0.51586998
   0.97477412  0.67174469  0.66389088
   0.84666878  0.15614766  0.48413025
   0.77371865  0.24271218  0.98430173
   0.94093029  0.92676203  0.66563969
   0.05906971  0.07323807  0.33436041
   0.29518345  0.55865615  0.84295377
   0.02522585  0.32825536  0.33610908
   0.71007761  0.70015464  0.13444025
   0.28992250  0.29984543  0.86555958
   0.92603436  0.56544248  0.16178947
   0.07396570  0.43455754  0.83821025
   0.58774155  0.29172696  0.83990642
   0.80451214  0.15278006  0.76990870
   0.35447799  0.02965724  0.32985746
   0.18063654  0.58848046  0.24420724
   0.41061570  0.13925366  0.08077223
   0.19548774  0.84721978  0.23009158
   0.81936343  0.41151951  0.75579260
   0.12989413  0.79924587  0.77058375
   0.64552213  0.97034262  0.67014247
   0.87010567  0.20075397  0.22941657
   0.41225849  0.70827304  0.16009397
   0.16164251  0.40621927  0.05898145
   0.58938403  0.86074615  0.91922773
   0.04933288  0.81074329  0.65364815
   0.74624570  0.27465466  0.83729257
   0.52520457  0.92630441  0.79425112
   0.47479538  0.07369556  0.20574872
   0.20455298  0.42597505  0.90194970
   0.79544698  0.57402491  0.09805020
   0.95066714  0.18925676  0.34635196
   0.25375437  0.72534537  0.16270756
 
 position of ions in cartesian coordinates  (Angst):
  10.87608254  6.78070436  7.78591692
   1.31439293  5.02480081  1.96471184
   2.94052662 10.01315249  3.43865963
   9.24994977  1.79235375  6.31197196
   6.03834118  8.07047446  0.94568624
   6.15213469  3.73503091  8.80494350
   7.50219259  2.89184605  1.51076520
   4.68828341  8.91365992  8.23986551
   2.51801978  7.45172935  0.15306803
  10.34256849  7.70681771  9.17552313
   6.22274717  9.63208013  1.70886134
   6.09163697  9.57075264  7.42278824
   6.09883755  2.23475341  2.32783955
   5.96772962  2.17342613  8.04176605
   7.34901042  4.63967627  1.53130129
   2.88567595  9.30381468  5.03005747
  11.11984910  7.91452244  6.47335454
   9.30480168  2.50169333  4.72057509
   9.67246049  4.35377849  9.59756229
  10.89007669 10.41679785  6.49040654
   1.30039946  1.38870902  3.26022475
   4.84146496  7.16582984  8.21933059
   1.07062645  3.89098366  3.27727539
   7.45014097  7.13023875  1.31087718
   4.74033568  4.67526729  8.43975148
   9.55715178  5.86516568  1.57754931
   2.63332413  5.94033965  8.17307828
   7.58039419  4.54423091  8.18961700
   9.49040491  3.04227984  7.50709511
   4.14787081  0.95264818  3.21631815
   2.48795678  6.25632138  2.38117452
   4.21477794  1.52658226  0.78758015
   2.70007036  8.76322484  2.24353794
   9.70251849  5.54918369  7.36945424
   3.17298270  9.37797415  7.51367728
   8.04260607 10.85285599  6.53431149
   9.01749187  2.42753061  2.23695616
   4.61008292  7.26127556  1.56101712
   1.84790511  4.09868564  0.57510631
   7.97569519 10.27892148  8.96304977
   2.14949391  9.25593012  6.37348147
   9.11018901  4.37170321  8.16413032
   7.11504437 10.67044888  7.74444905
   5.07543071  1.13505620  2.00617971
   4.03336802  5.98417580  8.79457809
   8.15710727  5.82132930  0.95605125
  10.04098244  2.54957628  3.37714992
   3.08028787  7.43380303  1.58650127
 


--------------------------------------------------------------------------------------------------------


 k-point   1 :   0.0000 0.0000 0.0000  plane waves:   31007

 maximum and minimum number of plane-waves per node :     31007    31007

 maximum number of plane-waves:     31007
 maximum index in each direction: 
   IXMAX=   19   IYMAX=   19   IZMAX=   20
   IXMIN=  -19   IYMIN=  -19   IZMIN=  -20


 serial   3D FFT for wavefunctions
 parallel 3D FFT for charge:
    minimum data exchange during FFTs selected (reduces bandwidth)


 total amount of memory used by VASP MPI-rank0    76145. kBytes
=======================================================================

   base      :      30000. kBytes
   nonlr-proj:      16027. kBytes
   fftplans  :       3887. kBytes
   grid      :      25077. kBytes
   one-center:        147. kBytes
   wavefun   :       1007. kBytes
 
     INWAV:  cpu time      0.0000: real time      0.0000
 Broyden mixing: mesh for mixing (old mesh)
   NGX = 39   NGY = 39   NGZ = 41
  (NGX  =160   NGY  =160   NGZ  =168)
  gives a total of  62361 points

 initial charge density was supplied:
 charge density of overlapping atoms calculated
 number of electron     256.0000000 magnetization 
 keeping initial charge density in first step


--------------------------------------------------------------------------------------------------------


 Maximum index for non-local projection operator         4023
 Maximum index for augmentation-charges          929 (set IRDMAX)


--------------------------------------------------------------------------------------------------------


 First call to EWALD:  gamma=   0.182
 Maximum number of real-space cells 3x 3x 3
 Maximum number of reciprocal cells 3x 3x 3

    FEWALD:  cpu time      0.0020: real time      0.0020


--------------------------------------- Ionic step        1  -------------------------------------------




--------------------------------------- Iteration      1(   1)  ---------------------------------------


    POTLOK:  cpu time      0.0779: real time      0.0817
    SETDIJ:  cpu time      0.0634: real time      0.0638
     EDDAV:  cpu time      1.4072: real time      1.4894
       DOS:  cpu time      0.0033: real time      0.0044
    --------------------------------------------
      LOOP:  cpu time      1.5519: real time      1.6394

 eigenvalue-minimisations  :   512
 total energy-change (2. order) : 0.1364256E+04  (-0.1311620E+05)
 number of electron     256.0000000 magnetization 
 augmentation part      256.0000000 magnetization 

 Free energy of the ion-electron system (eV)
  ---------------------------------------------------
  alpha Z        PSCENC =       245.88651131
  Ewald energy   TEWEN  =     -3860.38285111
  -Hartree energ DENC   =    -10371.89223832
  -exchange      EXHF   =         0.00000000
  -V(xc)+E(xc)   XCENC  =       714.92214866
  PAW double counting   =     12737.26475670   -12473.89432873
  entropy T*S    EENTRO =        -0.03296918
  eigenvalues    EBANDS =     -1299.84584486
  atomic energy  EATOM  =     15672.23100914
  Solvation  Ediel_sol  =         0.00000000
  ---------------------------------------------------
  free energy    TOTEN  =      1364.25619362 eV

  energy without entropy =     1364.28916280  energy(sigma->0) =     1364.27267821


--------------------------------------------------------------------------------------------------------




--------------------------------------- Iteration      1(   2)  ---------------------------------------


     EDDAV:  cpu time      2.1251: real time      2.1465
       DOS:  cpu time      0.0004: real time      0.0004
    --------------------------------------------
      LOOP:  cpu time      2.1254: real time      2.1469

 eigenvalue-minimisations  :   640
 total energy-change (2. order) :-0.1679475E+04  (-0.1550512E+04)
 number of electron     256.0000000 magnetization 
 augmentation part      256.0000000 magnetization 

 Free energy of the ion-electron system (eV)
  ---------------------------------------------------
  alpha Z        PSCENC =       245.88651131
  Ewald energy   TEWEN  =     -3860.38285111
  -Hartree energ DENC   =    -10371.89223832
  -exchange      EXHF   =         0.00000000
  -V(xc)+E(xc)   XCENC  =       714.92214866
  PAW double counting   =     12737.26475670   -12473.89432873
  entropy T*S    EENTRO =        -0.00000000
  eigenvalues    EBANDS =     -2979.35333402
  atomic energy  EATOM  =     15672.23100914
  Solvation  Ediel_sol  =         0.00000000
  ---------------------------------------------------
  free energy    TOTEN  =      -315.21832637 eV

  energy without entropy =     -315.21832637  energy(sigma->0) =     -315.21832637


--------------------------------------------------------------------------------------------------------




--------------------------------------- Iteration      1(   3)  ---------------------------------------


     EDDAV:  cpu time      3.1325: real time      3.1576
       DOS:  cpu time      0.0002: real time      0.0002
    --------------------------------------------
      LOOP:  cpu time      3.1327: real time      3.1579

 eigenvalue-minimisations  :   768
 total energy-change (2. order) :-0.9333863E+02  (-0.9288816E+02)
 number of electron     256.0000000 magnetization 
 augmentation part      256.0000000 magnetization 

 Free energy of the ion-electron system (eV)
  ---------------------------------------------------
  alpha Z        PSCENC =       245.88651131
  Ewald energy   TEWEN  =     -3860.38285111
  -Hartree energ DENC   =    -10371.89223832
  -exchange      EXHF   =         0.00000000
  -V(xc)+E(xc)   XCENC  =       714.92214866
  PAW double counting   =     12737.26475670   -12473.89432873
  entropy T*S    EENTRO =        -0.00000000
  eigenvalues    EBANDS =     -3072.69196848
  atomic energy  EATOM  =     15672.23100914
  Solvation  Ediel_sol  =         0.00000000
  ---------------------------------------------------
  free energy    TOTEN  =      -408.55696082 eV

  energy without entropy =     -408.55696082  energy(sigma->0) =     -408.55696082


--------------------------------------------------------------------------------------------------------




--------------------------------------- Iteration      1(   4)  ---------------------------------------


     EDDAV:  cpu time      2.1012: real time      2.1213
       DOS:  cpu time      0.0004: real time      0.0004
    --------------------------------------------
      LOOP:  cpu time      2.1016: real time      2.1217

 eigenvalue-minimisations  :   640
 total energy-change (2. order) :-0.7930175E+00  (-0.7929911E+00)
 number of electron     256.0000000 magnetization 
 augmentation part      256.0000000 magnetization 

 Free energy of the ion-electron system (eV)
  ---------------------------------------------------
  alpha Z        PSCENC =       245.88651131
  Ewald energy   TEWEN  =     -3860.38285111
  -Hartree energ DENC   =    -10371.89223832
  -exchange      EXHF   =         0.00000000
  -V(xc)+E(xc)   XCENC  =       714.92214866
  PAW double counting   =     12737.26475670   -12473.89432873
  entropy T*S    EENTRO =        -0.00000000
  eigenvalues    EBANDS =     -3073.48498594
  atomic energy  EATOM  =     15672.23100914
  Solvation  Ediel_sol  =         0.00000000
  ---------------------------------------------------
  free energy    TOTEN  =      -409.34997829 eV

  energy without entropy =     -409.34997829  energy(sigma->0) =     -409.34997829


--------------------------------------------------------------------------------------------------------




--------------------------------------- Iteration      1(   5)  ---------------------------------------


     EDDAV:  cpu time      3.2182: real time      3.2458
       DOS:  cpu time      0.0003: real time      0.0003
    CHARGE:  cpu time      0.0615: real time      0.0622
    MIXING:  cpu time      0.0014: real time      0.0021
    --------------------------------------------
      LOOP:  cpu time      3.2813: real time      3.3105

 eigenvalue-minimisations  :   768
 total energy-change (2. order) :-0.1115799E-01  (-0.1115787E-01)
 number of electron     255.9999995 magnetization 
 augmentation part       22.9473854 magnetization 

 Broyden mixing:
  rms(total) = 0.68836E+01    rms(broyden)= 0.68832E+01
  rms(prec ) = 0.78506E+01
  weight for this iteration     100.00

 Free energy of the ion-electron system (eV)
  ---------------------------------------------------
  alpha Z        PSCENC =       245.88651131
  Ewald energy   TEWEN  =     -3860.38285111
  -Hartree energ DENC   =    -10371.89223832
  -exchange      EXHF   =         0.00000000
  -V(xc)+E(xc)   XCENC  =       714.92214866
  PAW double counting   =     12737.26475670   -12473.89432873
  entropy T*S    EENTRO =        -0.00000000
  eigenvalues    EBANDS =     -3073.49614393
  atomic energy  EATOM  =     15672.23100914
  Solvation  Ediel_sol  =         0.00000000
  ---------------------------------------------------
  free energy    TOTEN  =      -409.36113628 eV

  energy without entropy =     -409.36113628  energy(sigma->0) =     -409.36113628


--------------------------------------------------------------------------------------------------------




--------------------------------------- Iteration      1(   6)  ---------------------------------------


    POTLOK:  cpu time      0.2527: real time      0.2615
    SETDIJ:  cpu time      0.0625: real time      0.0628
     EDDAV:  cpu time      1.8833: real time      1.8989
       DOS:  cpu time      0.0004: real time      0.0004
    CHARGE:  cpu time      0.0619: real time      0.0628
    MIXING:  cpu time      0.0011: real time      0.0015
    --------------------------------------------
      LOOP:  cpu time      2.2619: real time      2.2879

 eigenvalue-minimisations  :   640
 total energy-change (2. order) : 0.5072919E+02  (-0.1256455E+02)
 number of electron     255.9999995 magnetization 
 augmentation part       18.2128545 magnetization 

 Broyden mixing:
  rms(total) = 0.31721E+01    rms(broyden)= 0.31718E+01
  rms(prec ) = 0.32573E+01
  weight for this iteration     100.00

 eigenvalues of (default mixing * dielectric matrix)
  average eigenvalue GAMMA=   1.2826
  1.2826

 Free energy of the ion-electron system (eV)
  ---------------------------------------------------
  alpha Z        PSCENC =       245.88651131
  Ewald energy   TEWEN  =     -3860.38285111
  -Hartree energ DENC   =    -10943.06173456
  -exchange      EXHF   =         0.00000000
  -V(xc)+E(xc)   XCENC  =       752.97693243
  PAW double counting   =     21724.72389575   -21472.33763569
  entropy T*S    EENTRO =        -0.00000000
  eigenvalues    EBANDS =     -2478.66807803
  atomic energy  EATOM  =     15672.23100914
  Solvation  Ediel_sol  =         0.00000000
  ---------------------------------------------------
  free energy    TOTEN  =      -358.63195075 eV

  energy without entropy =     -358.63195075  energy(sigma->0) =     -358.63195075


--------------------------------------------------------------------------------------------------------




--------------------------------------- Iteration      1(   7)  ---------------------------------------


    POTLOK:  cpu time      0.3274: real time      0.3373
    SETDIJ:  cpu time      0.0656: real time      0.0659
     EDDAV:  cpu time      2.7918: real time      2.8132
       DOS:  cpu time      0.0022: real time      0.0023
    CHARGE:  cpu time      0.0614: real time      0.0622
    MIXING:  cpu time      0.0023: real time      0.0023
    --------------------------------------------
      LOOP:  cpu time      3.2507: real time      3.2831

 eigenvalue-minimisations  :   768
 total energy-change (2. order) :-0.2480376E-01  (-0.5759787E+00)
 number of electron     255.9999995 magnetization 
 augmentation part       17.8809386 magnetization 

 Broyden mixing:
  rms(total) = 0.10165E+01    rms(broyden)= 0.10164E+01
  rms(prec ) = 0.11010E+01
  weight for this iteration     100.00

 eigenvalues of (default mixing * dielectric matrix)
  average eigenvalue GAMMA=   1.3256
  1.2069  1.4443

 Free energy of the ion-electron system (eV)
  ---------------------------------------------------
  alpha Z        PSCENC =       245.88651131
  Ewald energy   TEWEN  =     -3860.38285111
  -Hartree energ DENC   =    -11026.07065091
  -exchange      EXHF   =         0.00000000
  -V(xc)+E(xc)   XCENC  =       757.98133688
  PAW double counting   =     31385.81153909   -31133.16364303
  entropy T*S    EENTRO =        -0.00000000
  eigenvalues    EBANDS =     -2400.95000588
  atomic energy  EATOM  =     15672.23100914
  Solvation  Ediel_sol  =         0.00000000
  ---------------------------------------------------
  free energy    TOTEN  =      -358.65675451 eV

  energy without entropy =     -358.65675451  energy(sigma->0) =     -358.65675451


--------------------------------------------------------------------------------------------------------




--------------------------------------- Iteration      1(   8)  ---------------------------------------


    POTLOK:  cpu time      0.3724: real time      0.3781
    SETDIJ:  cpu time      0.0683: real time      0.0686
     EDDAV:  cpu time      2.7639: real time      2.7847
       DOS:  cpu time      0.0004: real time      0.0004
    CHARGE:  cpu time      0.0632: real time      0.0639
    MIXING:  cpu time      0.0011: real time      0.0011
    --------------------------------------------
      LOOP:  cpu time      3.2693: real time      3.2969

 eigenvalue-minimisations  :   768
 total energy-change (2. order) : 0.9879026E-01  (-0.2589802E-01)
 number of electron     255.9999995 magnetization 
 augmentation part       18.0144200 magnetization 

 Broyden mixing:
  rms(total) = 0.34280E+00    rms(broyden)= 0.34280E+00
  rms(prec ) = 0.39680E+00
  weight for this iteration     100.00

 eigenvalues of (default mixing * dielectric matrix)
  average eigenvalue GAMMA=   1.5799
  1.1286  1.1286  2.4826

 Free energy of the ion-electron system (eV)
  ---------------------------------------------------
  alpha Z        PSCENC =       245.88651131
  Ewald energy   TEWEN  =     -3860.38285111
  -Hartree energ DENC   =    -11059.30107834
  -exchange      EXHF   =         0.00000000
  -V(xc)+E(xc)   XCENC  =       759.72274273
  PAW double counting   =     35757.78250995   -35504.85198822
  entropy T*S    EENTRO =        -0.00000000
  eigenvalues    EBANDS =     -2369.64481971
  atomic energy  EATOM  =     15672.23100914
  Solvation  Ediel_sol  =         0.00000000
  ---------------------------------------------------
  free energy    TOTEN  =      -358.55796424 eV

  energy without entropy =     -358.55796424  energy(sigma->0) =     -358.55796424


--------------------------------------------------------------------------------------------------------




--------------------------------------- Iteration      1(   9)  ---------------------------------------


    POTLOK:  cpu time      0.1799: real time      0.1816
    SETDIJ:  cpu time      0.0662: real time      0.0666
     EDDAV:  cpu time      2.7618: real time      2.7824
       DOS:  cpu time      0.0003: real time      0.0003
    CHARGE:  cpu time      0.0608: real time      0.0616
    MIXING:  cpu time      0.0020: real time      0.0020
    --------------------------------------------
      LOOP:  cpu time      3.0710: real time      3.0945

 eigenvalue-minimisations  :   768
 total energy-change (2. order) :-0.6124721E-02  (-0.1213785E-01)
 number of electron     255.9999995 magnetization 
 augmentation part       17.9701106 magnetization 

 Broyden mixing:
  rms(total) = 0.61437E-01    rms(broyden)= 0.61436E-01
  rms(prec ) = 0.77271E-01
  weight for this iteration     100.00

 eigenvalues of (default mixing * dielectric matrix)
  average eigenvalue GAMMA=   1.5788
  2.5157  1.0832  1.0832  1.6331

 Free energy of the ion-electron system (eV)
  ---------------------------------------------------
  alpha Z        PSCENC =       245.88651131
  Ewald energy   TEWEN  =     -3860.38285111
  -Hartree energ DENC   =    -11104.99699380
  -exchange      EXHF   =         0.00000000
  -V(xc)+E(xc)   XCENC  =       762.40933699
  PAW double counting   =     38498.51489388   -38245.78669248
  entropy T*S    EENTRO =        -0.00000000
  eigenvalues    EBANDS =     -2326.43930290
  atomic energy  EATOM  =     15672.23100914
  Solvation  Ediel_sol  =         0.00000000
  ---------------------------------------------------
  free energy    TOTEN  =      -358.56408897 eV

  energy without entropy =     -358.56408897  energy(sigma->0) =     -358.56408897


--------------------------------------------------------------------------------------------------------




--------------------------------------- Iteration      1(  10)  ---------------------------------------


    POTLOK:  cpu time      0.2517: real time      0.2589
    SETDIJ:  cpu time      0.0616: real time      0.0620
     EDDAV:  cpu time      1.8804: real time      1.8959
       DOS:  cpu time      0.0004: real time      0.0004
    CHARGE:  cpu time      0.0607: real time      0.0614
    MIXING:  cpu time      0.0020: real time      0.0020
    --------------------------------------------
      LOOP:  cpu time      2.2568: real time      2.2807

 eigenvalue-minimisations  :   640
 total energy-change (2. order) :-0.9341743E-02  (-0.4397740E-03)
 number of electron     255.9999995 magnetization 
 augmentation part       17.9609124 magnetization 

 Broyden mixing:
  rms(total) = 0.29953E-01    rms(broyden)= 0.29953E-01
  rms(prec ) = 0.41825E-01
  weight for this iteration     100.00

 eigenvalues of (default mixing * dielectric matrix)
  average eigenvalue GAMMA=   1.7003
  2.8018  2.5147  1.1114  1.1114  0.9623

 Free energy of the ion-electron system (eV)
  ---------------------------------------------------
  alpha Z        PSCENC =       245.88651131
  Ewald energy   TEWEN  =     -3860.38285111
  -Hartree energ DENC   =    -11111.14734777
  -exchange      EXHF   =         0.00000000
  -V(xc)+E(xc)   XCENC  =       762.59765971
  PAW double counting   =     38221.79506674   -37969.06855888
  entropy T*S    EENTRO =        -0.00000000
  eigenvalues    EBANDS =     -2320.48491985
  atomic energy  EATOM  =     15672.23100914
  Solvation  Ediel_sol  =         0.00000000
  ---------------------------------------------------
  free energy    TOTEN  =      -358.57343071 eV

  energy without entropy =     -358.57343071  energy(sigma->0) =     -358.57343071


--------------------------------------------------------------------------------------------------------




--------------------------------------- Iteration      1(  11)  ---------------------------------------


    POTLOK:  cpu time      0.2575: real time      0.2602
    SETDIJ:  cpu time      0.0654: real time      0.0658
     EDDAV:  cpu time      1.3221: real time      1.3360
       DOS:  cpu time      0.0003: real time      0.0003
    CHARGE:  cpu time      0.0613: real time      0.0622
    MIXING:  cpu time      0.0011: real time      0.0011
    --------------------------------------------
      LOOP:  cpu time      1.7077: real time      1.7256

 eigenvalue-minimisations  :   512
 total energy-change (2. order) :-0.3111145E-02  (-0.2469578E-03)
 number of electron     255.9999995 magnetization 
 augmentation part       17.9674375 magnetization 

 Broyden mixing:
  rms(total) = 0.10592E-01    rms(broyden)= 0.10591E-01
  rms(prec ) = 0.16508E-01
  weight for this iteration     100.00

 eigenvalues of (default mixing * dielectric matrix)
  average eigenvalue GAMMA=   1.5920
  2.6509  2.5669  0.9827  1.0937  1.0937  1.1644

 Free energy of the ion-electron system (eV)
  ---------------------------------------------------
  alpha Z        PSCENC =       245.88651131
  Ewald energy   TEWEN  =     -3860.38285111
  -Hartree energ DENC   =    -11116.56228016
  -exchange      EXHF   =         0.00000000
  -V(xc)+E(xc)   XCENC  =       762.70268500
  PAW double counting   =     37944.26500747   -37691.50726412
  entropy T*S    EENTRO =        -0.00000000
  eigenvalues    EBANDS =     -2315.20935939
  atomic energy  EATOM  =     15672.23100914
  Solvation  Ediel_sol  =         0.00000000
  ---------------------------------------------------
  free energy    TOTEN  =      -358.57654185 eV

  energy without entropy =     -358.57654185  energy(sigma->0) =     -358.57654185


--------------------------------------------------------------------------------------------------------




--------------------------------------- Iteration      1(  12)  ---------------------------------------


    POTLOK:  cpu time      0.2457: real time      0.2524
    SETDIJ:  cpu time      0.0654: real time      0.0658
     EDDAV:  cpu time      2.7487: real time      2.7717
       DOS:  cpu time      0.0003: real time      0.0003
    CHARGE:  cpu time      0.0612: real time      0.0622
    MIXING:  cpu time      0.0013: real time      0.0013
    --------------------------------------------
      LOOP:  cpu time      3.1227: real time      3.1537

 eigenvalue-minimisations  :   768
 total energy-change (2. order) :-0.7664295E-03  (-0.2881482E-04)
 number of electron     255.9999995 magnetization 
 augmentation part       17.9666201 magnetization 

 Broyden mixing:
  rms(total) = 0.52434E-02    rms(broyden)= 0.52433E-02
  rms(prec ) = 0.10176E-01
  weight for this iteration     100.00

 eigenvalues of (default mixing * dielectric matrix)
  average eigenvalue GAMMA=   1.7211
  2.9290  2.7084  2.2117  1.1039  1.1039  1.0744  0.9163

 Free energy of the ion-electron system (eV)
  ---------------------------------------------------
  alpha Z        PSCENC =       245.88651131
  Ewald energy   TEWEN  =     -3860.38285111
  -Hartree energ DENC   =    -11118.05635915
  -exchange      EXHF   =         0.00000000
  -V(xc)+E(xc)   XCENC  =       762.73509189
  PAW double counting   =     37979.38602095   -37726.62859491
  entropy T*S    EENTRO =        -0.00000000
  eigenvalues    EBANDS =     -2313.74813640
  atomic energy  EATOM  =     15672.23100914
  Solvation  Ediel_sol  =         0.00000000
  ---------------------------------------------------
  free energy    TOTEN  =      -358.57730828 eV

  energy without entropy =     -358.57730828  energy(sigma->0) =     -358.57730828


--------------------------------------------------------------------------------------------------------




--------------------------------------- Iteration      1(  13)  ---------------------------------------


    POTLOK:  cpu time      0.2170: real time      0.2194
    SETDIJ:  cpu time      0.0636: real time      0.0639
     EDDAV:  cpu time      1.3202: real time      1.3341
       DOS:  cpu time      0.0004: real time      0.0004
    CHARGE:  cpu time      0.0611: real time      0.0622
    MIXING:  cpu time      0.0012: real time      0.0012
    --------------------------------------------
      LOOP:  cpu time      1.6635: real time      1.6813

 eigenvalue-minimisations  :   512
 total energy-change (2. order) :-0.7131805E-03  (-0.3043704E-04)
 number of electron     255.9999995 magnetization 
 augmentation part       17.9656844 magnetization 

 Broyden mixing:
  rms(total) = 0.20414E-02    rms(broyden)= 0.20413E-02
  rms(prec ) = 0.39042E-02
  weight for this iteration     100.00

 eigenvalues of (default mixing * dielectric matrix)
  average eigenvalue GAMMA=   1.8115
  4.0108  2.6202  2.4837  1.2228  1.1044  1.1044  1.0149  0.9313

 Free energy of the ion-electron system (eV)
  ---------------------------------------------------
  alpha Z        PSCENC =       245.88651131
  Ewald energy   TEWEN  =     -3860.38285111
  -Hartree energ DENC   =    -11120.05658983
  -exchange      EXHF   =         0.00000000
  -V(xc)+E(xc)   XCENC  =       762.76972972
  PAW double counting   =     37999.03754096   -37746.27609260
  entropy T*S    EENTRO =        -0.00000000
  eigenvalues    EBANDS =     -2311.78727905
  atomic energy  EATOM  =     15672.23100914
  Solvation  Ediel_sol  =         0.00000000
  ---------------------------------------------------
  free energy    TOTEN  =      -358.57802146 eV

  energy without entropy =     -358.57802146  energy(sigma->0) =     -358.57802146


--------------------------------------------------------------------------------------------------------




--------------------------------------- Iteration      1(  14)  ---------------------------------------


    POTLOK:  cpu time      0.2788: real time      0.2844
    SETDIJ:  cpu time      0.0627: real time      0.0630
     EDDAV:  cpu time      2.7467: real time      2.7670
       DOS:  cpu time      0.0003: real time      0.0003
    CHARGE:  cpu time      0.0602: real time      0.0609
    MIXING:  cpu time      0.0024: real time      0.0024
    --------------------------------------------
      LOOP:  cpu time      3.1510: real time      3.1780

 eigenvalue-minimisations  :   768
 total energy-change (2. order) :-0.5892867E-04  (-0.5302785E-05)
 number of electron     255.9999995 magnetization 
 augmentation part       17.9659044 magnetization 

 Broyden mixing:
  rms(total) = 0.99001E-03    rms(broyden)= 0.98995E-03
  rms(prec ) = 0.19017E-02
  weight for this iteration     100.00

 eigenvalues of (default mixing * dielectric matrix)
  average eigenvalue GAMMA=   1.8243
  4.4025  2.7278  2.4963  1.3612  1.3612  1.1091  1.1091  0.9477  0.9041

 Free energy of the ion-electron system (eV)
  ---------------------------------------------------
  alpha Z        PSCENC =       245.88651131
  Ewald energy   TEWEN  =     -3860.38285111
  -Hartree energ DENC   =    -11120.44537348
  -exchange      EXHF   =         0.00000000
  -V(xc)+E(xc)   XCENC  =       762.77041827
  PAW double counting   =     38014.73743141   -37761.97431400
  entropy T*S    EENTRO =        -0.00000000
  eigenvalues    EBANDS =     -2311.40091193
  atomic energy  EATOM  =     15672.23100914
  Solvation  Ediel_sol  =         0.00000000
  ---------------------------------------------------
  free energy    TOTEN  =      -358.57808039 eV

  energy without entropy =     -358.57808039  energy(sigma->0) =     -358.57808039


--------------------------------------------------------------------------------------------------------




--------------------------------------- Iteration      1(  15)  ---------------------------------------


    POTLOK:  cpu time      0.2187: real time      0.2250
    SETDIJ:  cpu time      0.0664: real time      0.0669
     EDDAV:  cpu time      1.4876: real time      1.5013
       DOS:  cpu time      0.0004: real time      0.0004
    CHARGE:  cpu time      0.0626: real time      0.0635
    MIXING:  cpu time      0.0014: real time      0.0014
    --------------------------------------------
      LOOP:  cpu time      1.8372: real time      1.8584

 eigenvalue-minimisations  :   512
 total energy-change (2. order) :-0.1060672E-04  (-0.1159704E-05)
 number of electron     255.9999995 magnetization 
 augmentation part       17.9657383 magnetization 

 Broyden mixing:
  rms(total) = 0.75045E-03    rms(broyden)= 0.75043E-03
  rms(prec ) = 0.11330E-02
  weight for this iteration     100.00

 eigenvalues of (default mixing * dielectric matrix)
  average eigenvalue GAMMA=   1.8692
  4.7262  2.8200  2.4659  2.1854  1.3161  1.1030  1.1030  0.9388  1.0170  1.0170

 Free energy of the ion-electron system (eV)
  ---------------------------------------------------
  alpha Z        PSCENC =       245.88651131
  Ewald energy   TEWEN  =     -3860.38285111
  -Hartree energ DENC   =    -11120.47368779
  -exchange      EXHF   =         0.00000000
  -V(xc)+E(xc)   XCENC  =       762.76781501
  PAW double counting   =     38015.78477531   -37763.02270448
  entropy T*S    EENTRO =        -0.00000000
  eigenvalues    EBANDS =     -2311.36895839
  atomic energy  EATOM  =     15672.23100914
  Solvation  Ediel_sol  =         0.00000000
  ---------------------------------------------------
  free energy    TOTEN  =      -358.57809100 eV

  energy without entropy =     -358.57809100  energy(sigma->0) =     -358.57809100


--------------------------------------------------------------------------------------------------------




--------------------------------------- Iteration      1(  16)  ---------------------------------------


    POTLOK:  cpu time      0.2360: real time      0.2421
    SETDIJ:  cpu time      0.0628: real time      0.0631
     EDDAV:  cpu time      2.8258: real time      2.8474
       DOS:  cpu time      0.0003: real time      0.0003
    CHARGE:  cpu time      0.0603: real time      0.0611
    MIXING:  cpu time      0.0024: real time      0.0024
    --------------------------------------------
      LOOP:  cpu time      3.1877: real time      3.2166

 eigenvalue-minimisations  :   768
 total energy-change (2. order) :-0.1301996E-06  (-0.2560369E-06)
 number of electron     255.9999995 magnetization 
 augmentation part       17.9657869 magnetization 

 Broyden mixing:
  rms(total) = 0.27721E-03    rms(broyden)= 0.27720E-03
  rms(prec ) = 0.49780E-03
  weight for this iteration     100.00

 eigenvalues of (default mixing * dielectric matrix)
  average eigenvalue GAMMA=   1.9234
  5.3889  3.1542  2.5178  2.3861  1.2967  1.2967  0.9088  1.0625  1.0625  1.0415
  1.0415

 Free energy of the ion-electron system (eV)
  ---------------------------------------------------
  alpha Z        PSCENC =       245.88651131
  Ewald energy   TEWEN  =     -3860.38285111
  -Hartree energ DENC   =    -11120.47995238
  -exchange      EXHF   =         0.00000000
  -V(xc)+E(xc)   XCENC  =       762.76649530
  PAW double counting   =     38012.32183238   -37759.56026067
  entropy T*S    EENTRO =        -0.00000000
  eigenvalues    EBANDS =     -2311.36087510
  atomic energy  EATOM  =     15672.23100914
  Solvation  Ediel_sol  =         0.00000000
  ---------------------------------------------------
  free energy    TOTEN  =      -358.57809113 eV

  energy without entropy =     -358.57809113  energy(sigma->0) =     -358.57809113


--------------------------------------------------------------------------------------------------------




--------------------------------------- Iteration      1(  17)  ---------------------------------------


    POTLOK:  cpu time      0.3302: real time      0.3382
    SETDIJ:  cpu time      0.0628: real time      0.0632
     EDDAV:  cpu time      1.8686: real time      1.8840
       DOS:  cpu time      0.0004: real time      0.0004
    CHARGE:  cpu time      0.0613: real time      0.0622
    MIXING:  cpu time      0.0014: real time      0.0014
    --------------------------------------------
      LOOP:  cpu time      2.3247: real time      2.3491

 eigenvalue-minimisations  :   640
 total energy-change (2. order) : 0.5582806E-06  (-0.6979806E-07)
 number of electron     255.9999995 magnetization 
 augmentation part       17.9658062 magnetization 

 Broyden mixing:
  rms(total) = 0.15998E-03    rms(broyden)= 0.15997E-03
  rms(prec ) = 0.25651E-03
  weight for this iteration     100.00

 eigenvalues of (default mixing * dielectric matrix)
  average eigenvalue GAMMA=   1.9517
  5.6313  3.2995  2.5612  2.4667  1.9498  1.3149  0.9363  0.9363  1.0956  1.0956
  1.0667  1.0667

 Free energy of the ion-electron system (eV)
  ---------------------------------------------------
  alpha Z        PSCENC =       245.88651131
  Ewald energy   TEWEN  =     -3860.38285111
  -Hartree energ DENC   =    -11120.47538298
  -exchange      EXHF   =         0.00000000
  -V(xc)+E(xc)   XCENC  =       762.76610262
  PAW double counting   =     38011.38456158   -37758.62325366
  entropy T*S    EENTRO =        -0.00000000
  eigenvalues    EBANDS =     -2311.36478748
  atomic energy  EATOM  =     15672.23100914
  Solvation  Ediel_sol  =         0.00000000
  ---------------------------------------------------
  free energy    TOTEN  =      -358.57809057 eV

  energy without entropy =     -358.57809057  energy(sigma->0) =     -358.57809057


--------------------------------------------------------------------------------------------------------




--------------------------------------- Iteration      1(  18)  ---------------------------------------


    POTLOK:  cpu time      0.4059: real time      0.4156
    SETDIJ:  cpu time      0.0633: real time      0.0636
     EDDAV:  cpu time      2.7527: real time      2.7736
       DOS:  cpu time      0.0003: real time      0.0003
    CHARGE:  cpu time      0.0615: real time      0.0622
    MIXING:  cpu time      0.0013: real time      0.0013
    --------------------------------------------
      LOOP:  cpu time      3.2850: real time      3.3166

 eigenvalue-minimisations  :   768
 total energy-change (2. order) : 0.5529000E-07  (-0.1824229E-07)
 number of electron     255.9999995 magnetization 
 augmentation part       17.9658276 magnetization 

 Broyden mixing:
  rms(total) = 0.80631E-04    rms(broyden)= 0.80628E-04
  rms(prec ) = 0.11939E-03
  weight for this iteration     100.00

 eigenvalues of (default mixing * dielectric matrix)
  average eigenvalue GAMMA=   1.9830
  5.8420  3.7905  2.8529  2.4592  2.1018  1.4149  1.0749  1.0749  1.1370  1.1370
  1.0388  0.9279  0.9279

 Free energy of the ion-electron system (eV)
  ---------------------------------------------------
  alpha Z        PSCENC =       245.88651131
  Ewald energy   TEWEN  =     -3860.38285111
  -Hartree energ DENC   =    -11120.47420667
  -exchange      EXHF   =         0.00000000
  -V(xc)+E(xc)   XCENC  =       762.76623716
  PAW double counting   =     38010.50986578   -37757.74851848
  entropy T*S    EENTRO =        -0.00000000
  eigenvalues    EBANDS =     -2311.36613766
  atomic energy  EATOM  =     15672.23100914
  Solvation  Ediel_sol  =         0.00000000
  ---------------------------------------------------
  free energy    TOTEN  =      -358.57809052 eV

  energy without entropy =     -358.57809052  energy(sigma->0) =     -358.57809052


--------------------------------------------------------------------------------------------------------




--------------------------------------- Iteration      1(  19)  ---------------------------------------


    POTLOK:  cpu time      0.2757: real time      0.2850
    SETDIJ:  cpu time      0.0653: real time      0.0656
     EDDAV:  cpu time      1.3253: real time      1.3374
       DOS:  cpu time      0.0003: real time      0.0003
    CHARGE:  cpu time      0.0615: real time      0.0623
    MIXING:  cpu time      0.0015: real time      0.0015
    --------------------------------------------
      LOOP:  cpu time      1.7295: real time      1.7520

 eigenvalue-minimisations  :   512
 total energy-change (2. order) : 0.2589150E-07  (-0.3009929E-08)
 number of electron     255.9999995 magnetization 
 augmentation part       17.9658456 magnetization 

 Broyden mixing:
  rms(total) = 0.73189E-04    rms(broyden)= 0.73187E-04
  rms(prec ) = 0.85341E-04
  weight for this iteration     100.00

 eigenvalues of (default mixing * dielectric matrix)
  average eigenvalue GAMMA=   1.9995
  5.8810  4.0504  2.9604  2.4710  2.3546  1.5538  1.5538  1.0747  1.0747  1.0882
  1.0882  0.9177  0.9624  0.9624

 Free energy of the ion-electron system (eV)
  ---------------------------------------------------
  alpha Z        PSCENC =       245.88651131
  Ewald energy   TEWEN  =     -3860.38285111
  -Hartree energ DENC   =    -11120.47059847
  -exchange      EXHF   =         0.00000000
  -V(xc)+E(xc)   XCENC  =       762.76615511
  PAW double counting   =     38010.62852717   -37757.86708372
  entropy T*S    EENTRO =        -0.00000000
  eigenvalues    EBANDS =     -2311.36975991
  atomic energy  EATOM  =     15672.23100914
  Solvation  Ediel_sol  =         0.00000000
  ---------------------------------------------------
  free energy    TOTEN  =      -358.57809049 eV

  energy without entropy =     -358.57809049  energy(sigma->0) =     -358.57809049


--------------------------------------------------------------------------------------------------------




--------------------------------------- Iteration      1(  20)  ---------------------------------------


    POTLOK:  cpu time      0.2010: real time      0.2050
    SETDIJ:  cpu time      0.0611: real time      0.0615
     EDDAV:  cpu time      2.7587: real time      2.7794
       DOS:  cpu time      0.0003: real time      0.0003
    CHARGE:  cpu time      0.0615: real time      0.0623
    MIXING:  cpu time      0.0016: real time      0.0016
    --------------------------------------------
      LOOP:  cpu time      3.0842: real time      3.1101

 eigenvalue-minimisations  :   768
 total energy-change (2. order) : 0.1334047E-07  (-0.9261560E-09)
 number of electron     255.9999995 magnetization 
 augmentation part       17.9658305 magnetization 

 Broyden mixing:
  rms(total) = 0.13393E-04    rms(broyden)= 0.13392E-04
  rms(prec ) = 0.21475E-04
  weight for this iteration     100.00

 eigenvalues of (default mixing * dielectric matrix)
  average eigenvalue GAMMA=   2.0188
  5.9611  4.4060  3.0785  2.7185  2.4130  1.8677  1.6023  1.0714  1.0714  1.0960
  1.0960  1.0841  0.9409  0.9409  0.9344

 Free energy of the ion-electron system (eV)
  ---------------------------------------------------
  alpha Z        PSCENC =       245.88651131
  Ewald energy   TEWEN  =     -3860.38285111
  -Hartree energ DENC   =    -11120.47065013
  -exchange      EXHF   =         0.00000000
  -V(xc)+E(xc)   XCENC  =       762.76622853
  PAW double counting   =     38011.09010090   -37758.32863161
  entropy T*S    EENTRO =        -0.00000000
  eigenvalues    EBANDS =     -2311.36980751
  atomic energy  EATOM  =     15672.23100914
  Solvation  Ediel_sol  =         0.00000000
  ---------------------------------------------------
  free energy    TOTEN  =      -358.57809048 eV

  energy without entropy =     -358.57809048  energy(sigma->0) =     -358.57809048


--------------------------------------------------------------------------------------------------------




--------------------------------------- Iteration      1(  21)  ---------------------------------------


    POTLOK:  cpu time      0.2141: real time      0.2292
    SETDIJ:  cpu time      0.0652: real time      0.0657
     EDDAV:  cpu time      1.0064: real time      1.0159
       DOS:  cpu time      0.0003: real time      0.0002
    --------------------------------------------
      LOOP:  cpu time      1.2859: real time      1.3110

 eigenvalue-minimisations  :   384
 total energy-change (2. order) :-0.4438334E-09  (-0.1883436E-09)
 number of electron     255.9999995 magnetization 
 augmentation part       17.9658305 magnetization 

 Free energy of the ion-electron system (eV)
  ---------------------------------------------------
  alpha Z        PSCENC =       245.88651131
  Ewald energy   TEWEN  =     -3860.38285111
  -Hartree energ DENC   =    -11120.47094944
  -exchange      EXHF   =         0.00000000
  -V(xc)+E(xc)   XCENC  =       762.76624012
[...]
         -0.284900         -0.677809        271.308920
 ion    6
        248.347343          8.881379         -5.531339
         13.669968        250.265203          3.199769
         -0.284929         -0.677835        271.308879
 ion    7
        244.129310         -4.607133          1.124351
         -5.834337        262.295143          7.793980
         -3.275637          9.827605        264.020441
 ion    8
        244.129263         -4.607158          1.124399
         -5.834329        262.295145          7.794001
         -3.275679          9.827608        264.020469
 ion    9
        121.452164         -1.839136        -37.412584
         -2.577861        128.779906        -11.908233
        -29.350154         -4.083353         41.259833
 ion   10
        126.288347          1.867270         17.459181
          5.453872        122.509538        -15.309343
         14.979980        -12.885059         43.310368
 ion   11
        109.332983         28.607539          7.305392
         31.163328         51.435293        -20.191011
          8.421618        -22.162361        132.632809
 ion   12
         68.718486        -46.355202         -3.566066
        -46.532221         72.242344         -6.174864
         -1.668609         -6.120345        113.557612
 ion   13
         68.718507        -46.355262         -3.566005
        -46.532267         72.242285         -6.174854
         -1.668525         -6.120314        113.557725
 ion   14
        109.332992         28.607501          7.305377
         31.163318         51.435171        -20.191018
          8.421602        -22.162400        132.632705
 ion   15
        108.430954        -26.452570         11.043185
        -28.374871         65.736448         23.900812
         14.608287         22.617333        131.575151
 ion   16
        105.284892          1.910855         42.240920
          0.932911        118.062501         10.386466
         39.687214         11.583972         44.504670
 ion   17
         99.740793        -38.170076          7.464319
        -38.314174         52.859414         13.547801
          1.565792         16.656299        116.185166
 ion   18
        105.285008          1.910902         42.240870
          0.932873        118.062586         10.386452
         39.687189         11.583926         44.504578
 ion   19
        121.452178         -1.839182        -37.412745
         -2.577843        128.779823        -11.908206
        -29.350296         -4.083403         41.259996
 ion   20
         71.042174         49.849347          4.134541
         50.751469         57.671394         -3.576014
          5.455980         -2.866245        108.295181
 ion   21
         71.042022         49.849259          4.134486
         50.751423         57.671236         -3.576044
          5.455943         -2.866241        108.294965
 ion   22
        108.430993        -26.452543         11.043137
        -28.374883         65.736320         23.900750
         14.608269         22.617276        131.575159
 ion   23
         99.740704        -38.169994          7.464405
        -38.314088         52.859355         13.547877
          1.565864         16.656357        116.184988
 ion   24
         74.327973         44.267417          9.259683
         41.219538         39.982234        -11.830713
          7.002252        -13.204952        105.014084
 ion   25
         74.327831         44.267444          9.259672
         41.219588         39.982268        -11.830744
          7.002248        -13.204976        105.014054
 ion   26
         36.841614          2.330502        -32.130917
          2.950694        119.321451         -1.168250
        -31.893245         -0.265457        130.438945
 ion   27
         36.841690          2.330521        -32.131033
          2.950712        119.321471         -1.168199
        -31.893353         -0.265446        130.438816
 ion   28
         38.452113          4.530613          8.114323
          9.022034        125.973309         -3.922619
         12.397104          1.627354        144.122953
 ion   29
        113.540520         15.992783         13.894346
         13.623114         44.294979        -38.803226
         13.183590        -37.709960         99.882592
 ion   30
         75.722205        -14.214486         44.175579
        -13.596152        115.227783         12.271777
         44.944979          5.062937         78.971433
 ion   31
         99.559616        -31.067258         14.329906
        -34.719797         60.156393         27.923948
         13.470131         29.642518         96.913476
 ion   32
        105.981674         11.808875        -36.038120
         10.087869        123.801302         23.251635
        -37.075961         22.293964         66.845322
 ion   33
        113.540251         15.992848         13.894354
         13.623185         44.294978        -38.803202
         13.183623        -37.709938         99.882449
 ion   34
         99.559648        -31.067114         14.329886
        -34.719668         60.156588         27.923977
         13.470129         29.642598         96.913330
 ion   35
         68.234654         -3.610558        -48.464280
         -1.229916        119.970039          3.726703
        -51.347141         -0.018715         71.228892
 ion   36
         75.722199        -14.214446         44.175676
        -13.596108        115.227905         12.271706
         44.945024          5.062859         78.971593
 ion   37
         68.234473         -3.610554        -48.464266
         -1.229916        119.969849          3.726604
        -51.347143         -0.018759         71.228834
 ion   38
         38.452129          4.530640          8.114179
          9.022038        125.973293         -3.922614
         12.396891          1.627306        144.123019
 ion   39
        126.288373          1.867306         17.459333
          5.453862        122.509595        -15.309250
         14.980104        -12.885002         43.310398
 ion   40
        105.981755         11.808861        -36.038146
         10.087823        123.801290         23.251604
        -37.075972         22.293989         66.845165
 ion   41
        585.713130          1.201065         -0.506097
         -4.582787        588.231557         -3.468590
         15.349961         -3.801174        592.961339
 ion   42
        602.457885          1.718986          9.850576
          1.413608        578.388218          5.537844
         12.389666         -2.357960        602.449140
 ion   43
        591.698726        -24.563890         21.535552
         -6.117850        595.890720          0.810600
          9.164325         -1.576314        609.255809
 ion   44
        591.698861        -24.563886         21.535574
         -6.117753        595.890683          0.810644
          9.164267         -1.576250        609.255695
 ion   45
        589.030552         12.381393          8.083651
          1.058253        582.446899         -7.507788
         -0.453019         -0.096089        608.693247
 ion   46
        589.030648         12.381374          8.083703
          1.058188        582.446855         -7.507746
         -0.452994         -0.096075        608.693286
 ion   47
        585.713010          1.201034         -0.506103
         -4.582775        588.231372         -3.468590
         15.349856         -3.801190        592.961369
 ion   48
        602.457773          1.719013          9.850545
          1.413670        578.388134          5.537674
         12.389727         -2.358006        602.449183
 -------------------------------------------------------------

 
 -------------------------------------------------------------
  ORBITAL MAGNETIC SUSCEPTIBILITY, excluding core contribution
 -------------------------------------------------------------
  Approximate magnetic susceptibility, pGv (10^-6 cm^3/mole) 
     1       -351.875414          2.734074         -3.614784
     2          2.871265       -351.944662         -2.898437
     3         -3.495904         -2.902726       -361.079749
 -------------------------------------------------------------
  Approximate magnetic susceptibility, vGv (10^-6 cm^3/mole) 
     1       -325.707365          2.241160         -2.381211
     2          2.240420       -326.125739         -2.587970
     3         -2.379696         -2.586937       -331.462585
 
         principal value                      axis
       (10^-6 cm^3/mole)           x,          y,          z
      --------------------------------------------------------
             -332.822703     -0.2218     -0.2860     -0.9322
             -328.151227      0.7015     -0.7108      0.0511
             -322.321759     -0.6772     -0.6426      0.3583
 -------------------------------------------------------------
 
 -------------------------------------------------------------
  G=0 CONTRIBUTION TO CHEMICAL SHIFT (field along BDIR) 
  using pGv susceptibility, excluding core contribution
 -------------------------------------------------------------
   BDIR                X                 Y                 Z
 -------------------------------------------------------------
     1         -5.267674          0.040930         -0.054114
     2          0.042984         -5.268710         -0.043390
     3         -0.052335         -0.043455         -5.405465
 -------------------------------------------------------------
 
 
 --------------------------------------------------------------------------
  Core NMR properties        

  typ  El   Core shift (ppm)
 ----------------------------
    1  Al    -766.8301203
    2  O     -271.0766935
    3  P     -908.9027956
 ----------------------------

  Core contribution to magnetic susceptibility:    -41.89  10^-6 cm^3/mole
 --------------------------------------------------------------------------
 
 
 ---------------------------------------------------------------------------------
  CSA tensor (J. Mason, Solid State Nucl. Magn. Reson. 2, 285 (1993))             
 ---------------------------------------------------------------------------------
             EXCLUDING G=0 CONTRIBUTION             INCLUDING G=0 CONTRIBUTION    
         -----------------------------------   -----------------------------------
  ATOM    ISO_SHIFT        SPAN        SKEW     ISO_SHIFT        SPAN        SKEW 
 ---------------------------------------------------------------------------------
  (absolute, valence only)                                                                  
     1     258.3290     41.6693      0.4337      253.0150     41.5162      0.4315
     2     258.3290     41.6692      0.4337      253.0150     41.5161      0.4315
     3     251.1998     12.1844     -0.1267      245.8859     12.0034     -0.1276
     4     251.1999     12.1843     -0.1267      245.8859     12.0034     -0.1276
     5     256.6405     33.9503      0.3434      251.3266     33.8746      0.3506
     6     256.6405     33.9503      0.3434      251.3265     33.8746      0.3506
     7     256.8150     30.0223     -0.1691      251.5010     29.8815     -0.1712
     8     256.8150     30.0223     -0.1691      251.5010     29.8816     -0.1712
     9      97.1640    105.1268      0.9189       91.8500    105.3204      0.9181
    10      97.3694     91.7929      0.8963       92.0555     91.9163      0.8963
    11      97.8004    104.2067      0.6947       92.4864    104.1370      0.6970
    12      84.8395     94.8882      0.8734       79.5255     94.7884      0.8726
    13      84.8395     94.8883      0.8734       79.5256     94.7885      0.8726
    14      97.8003    104.2067      0.6947       92.4863    104.1370      0.6970
    15     101.9142     95.4495      0.6232       96.6002     95.2363      0.6251
    16      89.2840    106.5173      0.7337       83.9701    106.5276      0.7339
    17      89.5951     94.8607      0.8494       84.2812     94.7536      0.8476
    18      89.2841    106.5173      0.7337       83.9701    106.5276      0.7339
    19      97.1640    105.1268      0.9189       91.8500    105.3205      0.9181
    20      79.0029    102.1368      0.8605       73.6890    102.1848      0.8585
    21      79.0027    102.1366      0.8605       73.6888    102.1846      0.8585
    22     101.9142     95.4495      0.6232       96.6002     95.2363      0.6251
    23      89.5950     94.8605      0.8494       84.2811     94.7535      0.8476
    24      73.1081     98.5698      0.9159       67.7941     98.4914      0.9189
    25      73.1081     98.5698      0.9159       67.7941     98.4915      0.9189
    26      95.5340    113.5596      0.6272       90.2201    113.5157      0.6285
    27      95.5340    113.5596      0.6272       90.2200    113.5157      0.6285
    28     102.8495    108.1840      0.6555       97.5355    108.0380      0.6578
    29      85.9060    103.0285      0.7940       80.5921    102.9750      0.7973
    30      89.9738     94.1712      0.8372       84.6599     94.0755      0.8375
    31      85.5432     91.7483      0.8309       80.2292     91.6583      0.8282
    32      98.8761     94.6683      0.8837       93.5621     94.7297      0.8864
    33      85.9059    103.0284      0.7940       80.5919    102.9749      0.7973
    34      85.5432     91.7481      0.8309       80.2292     91.6581      0.8282
    35      86.4779    103.0344      0.8828       81.1639    103.0855      0.8851
    36      89.9739     94.1713      0.8372       84.6599     94.0757      0.8375
    37      86.4777    103.0343      0.8828       81.1638    103.0854      0.8851
    38     102.8495    108.1840      0.6555       97.5355    108.0379      0.6578
    39      97.3695     91.7930      0.8963       92.0555     91.9164      0.8963
    40      98.8761     94.6684      0.8837       93.5621     94.7298      0.8864
    41     588.9687     18.0213     -0.3599      583.6547     17.9037     -0.3572
    42     594.4317     35.4674     -0.2621      589.1178     35.3474     -0.2604
    43     598.9484     46.9475      0.1506      593.6345     46.7704      0.1486
    44     598.9484     46.9474      0.1506      593.6345     46.7702      0.1486
    45     593.3902     32.2857     -0.0237      588.0763     32.1884     -0.0151
    46     593.3903     32.2857     -0.0237      588.0763     32.1885     -0.0151
    47     588.9686     18.0213     -0.3599      583.6546     17.9037     -0.3573
    48     594.4317     35.4675     -0.2621      589.1177     35.3475     -0.2604
 ---------------------------------------------------------------------------------
  (absolute, valence and core)                                                                  
     1    -508.5011     41.6693      0.4337     -514.4422     41.5162      0.4315
     2    -508.5011     41.6692      0.4337     -514.4422     41.5161      0.4315
     3    -515.6303     12.1844     -0.1267     -521.5714     12.0034     -0.1276
     4    -515.6302     12.1843     -0.1267     -521.5713     12.0034     -0.1276
     5    -510.1896     33.9503      0.3434     -516.1307     33.8746      0.3506
     6    -510.1896     33.9503      0.3434     -516.1307     33.8746      0.3506
     7    -510.0152     30.0223     -0.1691     -515.9563     29.8815     -0.1712
     8    -510.0152     30.0223     -0.1691     -515.9563     29.8816     -0.1712
     9    -173.9127    105.1268      0.9189     -179.8538    105.3204      0.9181
    10    -173.7073     91.7929      0.8963     -179.6484     91.9163      0.8963
    11    -173.2763    104.2067      0.6947     -179.2174    104.1370      0.6970
    12    -186.2372     94.8882      0.8734     -192.1783     94.7884      0.8726
    13    -186.2372     94.8883      0.8734     -192.1783     94.7885      0.8726
    14    -173.2764    104.2067      0.6947     -179.2175    104.1370      0.6970
    15    -169.1625     95.4495      0.6232     -175.1036     95.2363      0.6251
    16    -181.7927    106.5173      0.7337     -187.7338    106.5276      0.7339
    17    -181.4816     94.8607      0.8494     -187.4227     94.7536      0.8476
    18    -181.7926    106.5173      0.7337     -187.7337    106.5276      0.7339
    19    -173.9127    105.1268      0.9189     -179.8538    105.3205      0.9181
    20    -192.0738    102.1368      0.8605     -198.0149    102.1848      0.8585
    21    -192.0740    102.1366      0.8605     -198.0151    102.1846      0.8585
    22    -169.1625     95.4495      0.6232     -175.1036     95.2363      0.6251
    23    -181.4817     94.8605      0.8494     -187.4228     94.7535      0.8476
    24    -197.9686     98.5698      0.9159     -203.9097     98.4914      0.9189
    25    -197.9686     98.5698      0.9159     -203.9097     98.4915      0.9189
    26    -175.5427    113.5596      0.6272     -181.4838    113.5157      0.6285
    27    -175.5427    113.5596      0.6272     -181.4838    113.5157      0.6285
    28    -168.2272    108.1840      0.6555     -174.1683    108.0380      0.6578
    29    -185.1707    103.0285      0.7940     -191.1118    102.9750      0.7973
    30    -181.1029     94.1712      0.8372     -187.0440     94.0755      0.8375
    31    -185.5335     91.7483      0.8309     -191.4746     91.6583      0.8282
    32    -172.2006     94.6683      0.8837     -178.1417     94.7297      0.8864
    33    -185.1708    103.0284      0.7940     -191.1119    102.9749      0.7973
    34    -185.5335     91.7481      0.8309     -191.4746     91.6581      0.8282
    35    -184.5988    103.0344      0.8828     -190.5399    103.0855      0.8851
    36    -181.1028     94.1713      0.8372     -187.0439     94.0757      0.8375
    37    -184.5990    103.0343      0.8828     -190.5401    103.0854      0.8851
    38    -168.2272    108.1840      0.6555     -174.1683    108.0379      0.6578
    39    -173.7072     91.7930      0.8963     -179.6483     91.9164      0.8963
    40    -172.2006     94.6684      0.8837     -178.1417     94.7298      0.8864
    41    -319.9341     18.0213     -0.3599     -325.8752     17.9037     -0.3572
    42    -314.4710     35.4674     -0.2621     -320.4122     35.3474     -0.2604
    43    -309.9544     46.9475      0.1506     -315.8955     46.7704      0.1486
    44    -309.9544     46.9474      0.1506     -315.8955     46.7702      0.1486
    45    -315.5126     32.2857     -0.0237     -321.4537     32.1884     -0.0151
    46    -315.5125     32.2857     -0.0237     -321.4536     32.1885     -0.0151
    47    -319.9342     18.0213     -0.3599     -325.8753     17.9037     -0.3573
    48    -314.4711     35.4675     -0.2621     -320.4122     35.3475     -0.2604
 ---------------------------------------------------------------------------------
  IF SPAN.EQ.0, THEN SKEW IS ILL-DEFINED                                          
 ---------------------------------------------------------------------------------
 
 
     LOOP+:  cpu time    669.5912: real time    691.8228
    4ORBIT:  cpu time      0.0000: real time      0.0000

 total amount of memory used by VASP MPI-rank0    76145. kBytes
=======================================================================

   base      :      30000. kBytes
   nonlr-proj:      16027. kBytes
   fftplans  :       3887. kBytes
   grid      :      25077. kBytes
   one-center:        147. kBytes
   wavefun   :       1007. kBytes
 
  
  
 General timing and accounting informations for this job:
 ========================================================
  
                  Total CPU time used (sec):      672.497
                            User time (sec):      652.255
                          System time (sec):       20.242
                         Elapsed time (sec):      697.908
  
                   Maximum memory used (kb):      572160.
                   Average memory used (kb):          N/A
  
                          Minor page faults:       576569
                          Major page faults:          379
                 Voluntary context switches:         4312
